 icycle:       10000
 Length of Path:        1069
 ORDERPARAMETER
           1  -1.0011580262617998     
           2 -0.99860841562972924     
           3 -0.99604900130799678     
           4 -0.99348931707953636     
           5 -0.99092231500541317     
           6 -0.98835471100055583     
           7 -0.98578149288968087     
           8 -0.98321220511130158     
           9 -0.98064382327055355     
          10 -0.97807102464883455     
          11 -0.97550651442703618     
          12 -0.97292526153900416     
          13 -0.97031388219089953     
          14 -0.96769535557922792     
          15 -0.96506735885558104     
          16 -0.96243820271421954     
          17 -0.95981271924073353     
          18 -0.95720219410186136     
          19 -0.95461382837826247     
          20 -0.95203557716064668     
          21 -0.94945944284981332     
          22 -0.94689530044661108     
          23 -0.94432454115006348     
          24 -0.94175963338375435     
          25 -0.93918692892913480     
          26 -0.93661308917351971     
          27 -0.93404967000807659     
          28 -0.93150562617289245     
          29 -0.92896238769470763     
          30 -0.92640515388804989     
          31 -0.92385897835832076     
          32 -0.92131866401959261     
          33 -0.91877499288040432     
          34 -0.91621457651020133     
          35 -0.91364128421768165     
          36 -0.91107397492741715     
          37 -0.90851200169470370     
          38 -0.90594591199904828     
          39 -0.90337319115406267     
          40 -0.90081146215703001     
          41 -0.89825439313673738     
          42 -0.89569392507037804     
          43 -0.89314604041084933     
          44 -0.89060164436590827     
          45 -0.88806766575221963     
          46 -0.88552599262705733     
          47 -0.88297358125879033     
          48 -0.88042062402020116     
          49 -0.87786974495954273     
          50 -0.87533189444151305     
          51 -0.87277778334329359     
          52 -0.87022625290744504     
          53 -0.86765287888876286     
          54 -0.86508712560049539     
          55 -0.86252279546008881     
          56 -0.85995387472638873     
          57 -0.85738933332594058     
          58 -0.85482254597877616     
          59 -0.85225062355457459     
          60 -0.84968026615493653     
          61 -0.84710667570359022     
          62 -0.84454148147742780     
          63 -0.84197193315188668     
          64 -0.83939149135163327     
          65 -0.83680683621647356     
          66 -0.83422130185070087     
          67 -0.83166049262568709     
          68 -0.82910863219322739     
          69 -0.82655760628560559     
          70 -0.82400240576638550     
          71 -0.82143501178300227     
          72 -0.81886409798014881     
          73 -0.81630679917572146     
          74 -0.81373815316210585     
          75 -0.81117298061139476     
          76 -0.80860817936698992     
          77 -0.80605522481659908     
          78 -0.80350736422492064     
          79 -0.80096283706636506     
          80 -0.79841591202744255     
          81 -0.79586060391189462     
          82 -0.79332699648591609     
          83 -0.79079605399755459     
          84 -0.78826329494841318     
          85 -0.78573020843925867     
          86 -0.78318958623251900     
          87 -0.78064481916778572     
          88 -0.77812290182249699     
          89 -0.77562019276029603     
          90 -0.77310020606906105     
          91 -0.77058470566289083     
          92 -0.76809710691404032     
          93 -0.76562202793462886     
          94 -0.76315033459900317     
          95 -0.76068647877861706     
          96 -0.75824807708957587     
          97 -0.75583009802427992     
          98 -0.75341848161619496     
          99 -0.75100683615460939     
         100 -0.74859994548577846     
         101 -0.74618489768369667     
         102 -0.74377860526409034     
         103 -0.74137077855877298     
         104 -0.73898036477842999     
         105 -0.73660381709668854     
         106 -0.73421785005266627     
         107 -0.73183082354733453     
         108 -0.72944125797267756     
         109 -0.72705520213213959     
         110 -0.72468764432030486     
         111 -0.72233980009996712     
         112 -0.71999642664233710     
         113 -0.71767482029408036     
         114 -0.71535956434871939     
         115 -0.71306446104605403     
         116 -0.71078954262616534     
         117 -0.70852466016560645     
         118 -0.70625673060056893     
         119 -0.70397796634438548     
         120 -0.70170557466568351     
         121 -0.69944807776773077     
         122 -0.69720708277185539     
         123 -0.69497136550054561     
         124 -0.69273531694023638     
         125 -0.69050413843347525     
         126 -0.68827943772671141     
         127 -0.68605738812520622     
         128 -0.68384488637281637     
         129 -0.68162978463492485     
         130 -0.67943876137627890     
         131 -0.67725412185496559     
         132 -0.67510428919730625     
         133 -0.67296557746734031     
         134 -0.67084235069849940     
         135 -0.66871694155381023     
         136 -0.66660121334101796     
         137 -0.66450555856498961     
         138 -0.66240386889567926     
         139 -0.66031533278844323     
         140 -0.65823223939885145     
         141 -0.65616014132467693     
         142 -0.65410608212433474     
         143 -0.65205892816364308     
         144 -0.65002534250202049     
         145 -0.64800681737896915     
         146 -0.64600110180577464     
         147 -0.64400894576693013     
         148 -0.64202371140855552     
         149 -0.64005633849210619     
         150 -0.63808524605082650     
         151 -0.63611027506997309     
         152 -0.63414815287323989     
         153 -0.63218340409218066     
         154 -0.63021121915108747     
         155 -0.62823739433617087     
         156 -0.62627227632948557     
         157 -0.62430581130247353     
         158 -0.62234519643053154     
         159 -0.62040033054827759     
         160 -0.61846335895520499     
         161 -0.61651967754467840     
         162 -0.61458778289827354     
         163 -0.61264577663929098     
         164 -0.61071567326086862     
         165 -0.60881988260380315     
         166 -0.60692487329675027     
         167 -0.60503402697761710     
         168 -0.60314271409885511     
         169 -0.60127040797746611     
         170 -0.59939774594237316     
         171 -0.59752566660594630     
         172 -0.59565473361903654     
         173 -0.59378088432188947     
         174 -0.59191271756689334     
         175 -0.59004466182250503     
         176 -0.58817600178483653     
         177 -0.58631053173730729     
         178 -0.58445116744976588     
         179 -0.58259279106360062     
         180 -0.58075177334498773     
         181 -0.57889702664429843     
         182 -0.57704821989920518     
         183 -0.57520155849676713     
         184 -0.57336605042325284     
         185 -0.57153601297619239     
         186 -0.56970991835663554     
         187 -0.56788146729407074     
         188 -0.56604883790485705     
         189 -0.56420771001781866     
         190 -0.56236991737214004     
         191 -0.56054013598331531     
         192 -0.55870913241645737     
         193 -0.55689914663442830     
         194 -0.55509254418562681     
         195 -0.55329913947777443     
         196 -0.55150180218857281     
         197 -0.54968482729929080     
         198 -0.54785288497425932     
         199 -0.54602350135003708     
         200 -0.54419348068812112     
         201 -0.54237736148079807     
         202 -0.54058895457503242     
         203 -0.53882164582387271     
         204 -0.53706435355784887     
         205 -0.53529634108816782     
         206 -0.53353374144166588     
         207 -0.53177742263460104     
         208 -0.53002924322896372     
         209 -0.52830109029078209     
         210 -0.52656811695237082     
         211 -0.52483013948997659     
         212 -0.52311426127304506     
         213 -0.52141206300272114     
         214 -0.51972186058331471     
         215 -0.51805036383693093     
         216 -0.51639561969011472     
         217 -0.51474612584235302     
         218 -0.51308571716960516     
         219 -0.51145322383789260     
         220 -0.50983111040245588     
         221 -0.50820979377312425     
         222 -0.50659865149937067     
         223 -0.50499256647047652     
         224 -0.50339899214453976     
         225 -0.50182180946501631     
         226 -0.50024355070464144     
         227 -0.49866863070145045     
         228 -0.49709967080838813     
         229 -0.49553221792397967     
         230 -0.49397515477121284     
         231 -0.49242750299077115     
         232 -0.49088738062000076     
         233 -0.48935205784183927     
         234 -0.48782838372477638     
         235 -0.48631712677395250     
         236 -0.48481858362767205     
         237 -0.48333193490025750     
         238 -0.48184910266925135     
         239 -0.48038379706027357     
         240 -0.47892328078267565     
         241 -0.47746771080301625     
         242 -0.47601719446386936     
         243 -0.47455668449803390     
         244 -0.47310188278919912     
         245 -0.47166866346027020     
         246 -0.47023509613354397     
         247 -0.46881233608822914     
         248 -0.46740201173012991     
         249 -0.46599962036734172     
         250 -0.46461248260392890     
         251 -0.46323081694777152     
         252 -0.46184036268971879     
         253 -0.46044720624074204     
         254 -0.45906335443183421     
         255 -0.45770094843975656     
         256 -0.45636667137186177     
         257 -0.45505065833348879     
         258 -0.45374303148685319     
         259 -0.45244345305430878     
         260 -0.45116041347343749     
         261 -0.44988300856566621     
         262 -0.44862499917351145     
         263 -0.44737099264511843     
         264 -0.44613212529133833     
         265 -0.44492065294188754     
         266 -0.44372913601531933     
         267 -0.44254252351011025     
         268 -0.44134573681097755     
         269 -0.44013450545484767     
         270 -0.43892576459283056     
         271 -0.43771832869793109     
         272 -0.43652982237898763     
         273 -0.43534662396999163     
         274 -0.43417435568784307     
         275 -0.43301607077471588     
         276 -0.43187613853069762     
         277 -0.43075426034079839     
         278 -0.42964557245119106     
         279 -0.42853866491131126     
         280 -0.42742991003492681     
         281 -0.42632126342351878     
         282 -0.42521159504988715     
         283 -0.42412630424882986     
         284 -0.42303896224189191     
         285 -0.42195129045836538     
         286 -0.42086529893724811     
         287 -0.41978802042965979     
         288 -0.41870517458782763     
         289 -0.41762174986449202     
         290 -0.41654885432646466     
         291 -0.41547897864741967     
         292 -0.41439015284381031     
         293 -0.41331335696085919     
         294 -0.41225321653270830     
         295 -0.41120818997120795     
         296 -0.41016308233691512     
         297 -0.40911824322377027     
         298 -0.40806162011338559     
         299 -0.40700953491074410     
         300 -0.40595707130200986     
         301 -0.40490354623256114     
         302 -0.40385146334987082     
         303 -0.40280187017834235     
         304 -0.40174635650618029     
         305 -0.40068891618839392     
         306 -0.39963436658872620     
         307 -0.39857738749791555     
         308 -0.39751203466393054     
         309 -0.39643739278215046     
         310 -0.39536781393998477     
         311 -0.39431672243817256     
         312 -0.39329366530549853     
         313 -0.39227577228106486     
         314 -0.39126142022831562     
         315 -0.39024498648365286     
         316 -0.38923103389771674     
         317 -0.38822247470753790     
         318 -0.38720903920101968     
         319 -0.38620142285760700     
         320 -0.38519404174642535     
         321 -0.38417555822793947     
         322 -0.38315370384168917     
         323 -0.38214089672813623     
         324 -0.38112136580479528     
         325 -0.38009790118626918     
         326 -0.37907510166503294     
         327 -0.37805513127204693     
         328 -0.37702961290379217     
         329 -0.37601023720279358     
         330 -0.37501471086598720     
         331 -0.37402530964116759     
         332 -0.37301511507966079     
         333 -0.37200487463821558     
         334 -0.37101333103104883     
         335 -0.37003955942133676     
         336 -0.36908842371155215     
         337 -0.36815878326530938     
         338 -0.36725420253966007     
         339 -0.36635943491177442     
         340 -0.36548002219311571     
         341 -0.36460362018375919     
         342 -0.36374396714373575     
         343 -0.36289296786994096     
         344 -0.36204938919376234     
         345 -0.36120430154772809     
         346 -0.36035299064558313     
         347 -0.35947482123931818     
         348 -0.35859501990521397     
         349 -0.35770985968278091     
         350 -0.35682922316836635     
         351 -0.35594353081788876     
         352 -0.35505465678808684     
         353 -0.35416172904898485     
         354 -0.35325957141514530     
         355 -0.35235485522595833     
         356 -0.35145006005282575     
         357 -0.35055859254176469     
         358 -0.34967744690899205     
         359 -0.34879914489364250     
         360 -0.34794097988997635     
         361 -0.34709831904804866     
         362 -0.34627628043042752     
         363 -0.34548007233534944     
         364 -0.34470218357196641     
         365 -0.34393143560806749     
         366 -0.34319074835446745     
         367 -0.34242817813373450     
         368 -0.34165453124372980     
         369 -0.34088928708346589     
         370 -0.34012339009156467     
         371 -0.33937658881534621     
         372 -0.33864542804904141     
         373 -0.33793374825913958     
         374 -0.33722749704935145     
         375 -0.33652418653401611     
         376 -0.33583257788844267     
         377 -0.33515852246757211     
         378 -0.33449205306276941     
         379 -0.33382962427993612     
         380 -0.33315160861414517     
         381 -0.33248560729277399     
         382 -0.33183024940345512     
         383 -0.33116670606794441     
         384 -0.33052920120802759     
         385 -0.32988606623624511     
         386 -0.32923533024360346     
         387 -0.32857432327306091     
         388 -0.32791757064975946     
         389 -0.32725096789139735     
         390 -0.32658407544509421     
         391 -0.32592896968953955     
         392 -0.32529238891659312     
         393 -0.32467697705808057     
         394 -0.32405560837065084     
         395 -0.32342680704541249     
         396 -0.32280239498396646     
         397 -0.32217593258000726     
         398 -0.32156483385505097     
         399 -0.32095540596447558     
         400 -0.32033843239764409     
         401 -0.31973094517636241     
         402 -0.31914155730529387     
         403 -0.31855038910842493     
         404 -0.31795913921785868     
         405 -0.31737530008418596     
         406 -0.31680759696930311     
         407 -0.31624777917399205     
         408 -0.31569599008117372     
         409 -0.31513707948599956     
         410 -0.31459814266285008     
         411 -0.31405560300946300     
         412 -0.31351578776505090     
         413 -0.31296750054351180     
         414 -0.31242492258342519     
         415 -0.31186886099512273     
         416 -0.31132037480041502     
         417 -0.31077421168346903     
         418 -0.31022660967150689     
         419 -0.30968451968432864     
         420 -0.30915845713545687     
         421 -0.30863767620467425     
         422 -0.30810149736616516     
         423 -0.30756031634710651     
         424 -0.30701524552448162     
         425 -0.30646629278371634     
         426 -0.30592975790978633     
         427 -0.30539004611718512     
         428 -0.30484552286660621     
         429 -0.30429466201300348     
         430 -0.30373735912362937     
         431 -0.30319575629242956     
         432 -0.30268262968908327     
         433 -0.30217579221701446     
         434 -0.30166444315701496     
         435 -0.30116088328188900     
         436 -0.30065098019597780     
         437 -0.30016063903890738     
         438 -0.29967296749435335     
         439 -0.29918288713740726     
         440 -0.29870138896184240     
         441 -0.29822847529198693     
         442 -0.29776441255013236     
         443 -0.29730917098942128     
         444 -0.29685644856792404     
         445 -0.29641622285161345     
         446 -0.29597532183142239     
         447 -0.29555718684192761     
         448 -0.29514215917098946     
         449 -0.29472531345017672     
         450 -0.29431094408405201     
         451 -0.29388249033767888     
         452 -0.29345863972453928     
         453 -0.29304643900245514     
         454 -0.29265244403509638     
         455 -0.29227133330911015     
         456 -0.29189732306933003     
         457 -0.29153690495732859     
         458 -0.29117715959671020     
         459 -0.29082391547517678     
         460 -0.29047723710162182     
         461 -0.29013469839391809     
         462 -0.28979081504960191     
         463 -0.28944756800439125     
         464 -0.28910806974013542     
         465 -0.28877107533171531     
         466 -0.28842529810505463     
         467 -0.28806991143262689     
         468 -0.28769947130570955     
         469 -0.28732968571684564     
         470 -0.28695075232950551     
         471 -0.28656312126265376     
         472 -0.28616097714183270     
         473 -0.28576900647557896     
         474 -0.28538298377129590     
         475 -0.28499743915596870     
         476 -0.28460637211315071     
         477 -0.28423067595845114     
         478 -0.28384357748307143     
         479 -0.28345958136961086     
         480 -0.28307225008754411     
         481 -0.28266586522707515     
         482 -0.28224716064766270     
         483 -0.28181810149918046     
         484 -0.28138867131813178     
         485 -0.28097107480416256     
         486 -0.28058091356880988     
         487 -0.28018313235102499     
         488 -0.27978624776664440     
         489 -0.27938209693606381     
         490 -0.27897345343174423     
         491 -0.27856723980584769     
         492 -0.27818757714719172     
         493 -0.27783285272377822     
         494 -0.27747598774941795     
         495 -0.27713183922514689     
         496 -0.27677858271103106     
         497 -0.27643638797065900     
         498 -0.27610167911144901     
         499 -0.27577070278211524     
         500 -0.27544631541720660     
         501 -0.27513001700390255     
         502 -0.27482872419576382     
         503 -0.27454112980141665     
         504 -0.27426809609697023     
         505 -0.27400078960984015     
         506 -0.27374190403302839     
         507 -0.27348479242502155     
         508 -0.27324483510759445     
         509 -0.27300876771345345     
         510 -0.27277774840884422     
         511 -0.27254919507211539     
         512 -0.27232954955358141     
         513 -0.27212594561069298     
         514 -0.27194614358572000     
         515 -0.27178277270414353     
         516 -0.27162670873588424     
         517 -0.27147162952817588     
         518 -0.27131032142646661     
         519 -0.27113643920210939     
         520 -0.27096391547046933     
         521 -0.27079583895002324     
         522 -0.27063450837881919     
         523 -0.27047246231463862     
         524 -0.27034297397273266     
         525 -0.27022601650379291     
         526 -0.27011107975825405     
         527 -0.26999740760464791     
         528 -0.26987709419073425     
         529 -0.26975499705025907     
         530 -0.26963868724474438     
         531 -0.26952308772043376     
         532 -0.26940314492301631     
         533 -0.26928418294014722     
         534 -0.26917118683866037     
         535 -0.26907935487160412     
         536 -0.26899407429891120     
         537 -0.26892221696448232     
         538 -0.26884983530228879     
         539 -0.26878311659871523     
         540 -0.26872198431740046     
         541 -0.26865260682561537     
         542 -0.26859800777269932     
         543 -0.26855309822779289     
         544 -0.26851876119382656     
         545 -0.26849276384476389     
         546 -0.26848337556223867     
         547 -0.26847890047361639     
         548 -0.26850128625029651     
         549 -0.26852511014761760     
         550 -0.26855129233875880     
         551 -0.26858702298996839     
         552 -0.26864175388532646     
         553 -0.26871177277847935     
         554 -0.26878158075901848     
         555 -0.26886841787864602     
         556 -0.26894679026751539     
         557 -0.26902335626193263     
         558 -0.26910492484433196     
         559 -0.26918713272531047     
         560 -0.26926155233344051     
         561 -0.26933887242623639     
         562 -0.26941747195231874     
         563 -0.26948783177016378     
         564 -0.26954528854083237     
         565 -0.26961931751054824     
         566 -0.26970786960489052     
         567 -0.26979320091938652     
         568 -0.26987670139896075     
         569 -0.26994497418666397     
         570 -0.26999790472584961     
         571 -0.27005386678448579     
         572 -0.27010714764714422     
         573 -0.27016238340825094     
         574 -0.27023065696451409     
         575 -0.27031013314102270     
         576 -0.27040676598904378     
         577 -0.27051403320321105     
         578 -0.27063453529916143     
         579 -0.27074541738559188     
         580 -0.27084778748769306     
         581 -0.27095255822561620     
         582 -0.27108283003355244     
         583 -0.27122179508956507     
         584 -0.27136275210260580     
         585 -0.27150912368842978     
         586 -0.27165890700346823     
         587 -0.27180377420435670     
         588 -0.27194053666818579     
         589 -0.27206374436003811     
         590 -0.27218573013507202     
         591 -0.27231639808425623     
         592 -0.27246045876624680     
         593 -0.27261748254426160     
         594 -0.27278583550566676     
         595 -0.27298507711365488     
         596 -0.27320343837395711     
         597 -0.27343879657178843     
         598 -0.27366767895103100     
         599 -0.27389889189265332     
         600 -0.27412596861667016     
         601 -0.27436353189488044     
         602 -0.27461656721751915     
         603 -0.27487115268114531     
         604 -0.27511470772209734     
         605 -0.27536500296085592     
         606 -0.27563520318696827     
         607 -0.27591044614999960     
         608 -0.27619382166611467     
         609 -0.27645017606853711     
         610 -0.27669719182419789     
         611 -0.27697107236630225     
         612 -0.27724824017637834     
         613 -0.27752433189514542     
         614 -0.27781807130302466     
         615 -0.27811896768871208     
         616 -0.27843682214750354     
         617 -0.27876373396550574     
         618 -0.27908874962518676     
         619 -0.27942796451569202     
         620 -0.27976565355567412     
         621 -0.28010664765976545     
         622 -0.28045879802201334     
         623 -0.28081768422900039     
         624 -0.28119089954481963     
         625 -0.28158297271953703     
         626 -0.28198871879225140     
         627 -0.28238883495262390     
         628 -0.28279404143891351     
         629 -0.28321100997659815     
         630 -0.28364666531842941     
         631 -0.28410091162165135     
         632 -0.28455929354565468     
         633 -0.28502673223339819     
         634 -0.28548884590579243     
         635 -0.28594424306793964     
         636 -0.28640810458900234     
         637 -0.28687471062433628     
         638 -0.28733335463369430     
         639 -0.28780783741287491     
         640 -0.28829352607613007     
         641 -0.28878325162640017     
         642 -0.28927237026341052     
         643 -0.28975108664930038     
         644 -0.29022515897524759     
         645 -0.29070699622003410     
         646 -0.29120856439354847     
         647 -0.29172841345704492     
         648 -0.29226174464928384     
         649 -0.29280051366801679     
         650 -0.29334165140304108     
         651 -0.29389304394686844     
         652 -0.29444348865357772     
         653 -0.29501556463427525     
         654 -0.29559982546099650     
         655 -0.29618652803558304     
         656 -0.29678844094055451     
         657 -0.29741304027924165     
         658 -0.29805293155856338     
         659 -0.29870089374238901     
         660 -0.29936018383947138     
         661 -0.30003834107008653     
         662 -0.30072989700371872     
         663 -0.30143917073843013     
         664 -0.30216010936196952     
         665 -0.30288841305099307     
         666 -0.30361961728176701     
         667 -0.30437395626704011     
         668 -0.30513557356511412     
         669 -0.30589835047959729     
         670 -0.30667614906963359     
         671 -0.30744588933016231     
         672 -0.30820384149556385     
         673 -0.30895140048452741     
         674 -0.30969157789235441     
         675 -0.31043494711095621     
         676 -0.31116986273323261     
         677 -0.31189709340154559     
         678 -0.31264752572673060     
         679 -0.31340288177054904     
         680 -0.31415867818141369     
         681 -0.31493112444672616     
         682 -0.31570150983821921     
         683 -0.31648035515968320     
         684 -0.31726691511464261     
         685 -0.31806787011062998     
         686 -0.31887732649838851     
         687 -0.31969022069967523     
         688 -0.32050995017278561     
         689 -0.32133976022111799     
         690 -0.32218949538351493     
         691 -0.32304046641093837     
         692 -0.32388372957968647     
         693 -0.32473003142594936     
         694 -0.32557155582881819     
         695 -0.32643345023217535     
         696 -0.32732069513521367     
         697 -0.32823411679892384     
         698 -0.32917146407400283     
         699 -0.33010294527567430     
         700 -0.33103264383417752     
         701 -0.33196349444112050     
         702 -0.33291705336929384     
         703 -0.33389306282445141     
         704 -0.33485947807126565     
         705 -0.33583041553070275     
         706 -0.33681131289881366     
         707 -0.33781549430279800     
         708 -0.33881874878992235     
         709 -0.33982652693455639     
         710 -0.34082798323725744     
         711 -0.34183323989610598     
         712 -0.34283775710927555     
         713 -0.34383426452007260     
         714 -0.34483026001177425     
         715 -0.34583308610474911     
         716 -0.34683425929515344     
         717 -0.34785592843744945     
         718 -0.34889081527609989     
         719 -0.34991738745235418     
         720 -0.35093747549581616     
         721 -0.35195806067018792     
         722 -0.35299669361959651     
         723 -0.35404896650251572     
         724 -0.35511027515643712     
         725 -0.35617611276574251     
         726 -0.35726248355066592     
         727 -0.35833387339801775     
         728 -0.35938210645554081     
         729 -0.36042975271160105     
         730 -0.36149153483973945     
         731 -0.36256772789021052     
         732 -0.36365447931697875     
         733 -0.36473954564639960     
         734 -0.36582669248381033     
         735 -0.36691891238620361     
         736 -0.36801889909602681     
         737 -0.36912688560200185     
         738 -0.37023224641114988     
         739 -0.37134189723693173     
         740 -0.37245371253715448     
         741 -0.37355344607778707     
         742 -0.37466337762366753     
         743 -0.37578515055071465     
         744 -0.37692577538984062     
         745 -0.37807882637005796     
         746 -0.37922795213302768     
         747 -0.38037493198022360     
         748 -0.38151905432603134     
         749 -0.38266882288250548     
         750 -0.38383447715279029     
         751 -0.38501431789103158     
         752 -0.38620468217095194     
         753 -0.38739489991747877     
         754 -0.38859914782839450     
         755 -0.38980407880683521     
         756 -0.39102373037812094     
         757 -0.39224731507064364     
         758 -0.39346914602633298     
         759 -0.39469373444869749     
         760 -0.39592751378869923     
         761 -0.39717716837584066     
         762 -0.39843832230756238     
         763 -0.39971650040941370     
         764 -0.40100150623828590     
         765 -0.40228209810358562     
         766 -0.40356518353359849     
         767 -0.40483949760715893     